formula,reduced_formula,solubility_0C,solubility_10C,solubility_20C,solubility_25C,solubility_30C,solubility_40C,solubility_50C,solubility_60C,solubility_70C,solubility_80C,solubility_90C,solubility_100C
(NH4)2C2O4,H4CNO2,2.360e+00,3.210e+00,4.440e+00,5.200e+00,6.080e+00,8.180e+00,1.078e+01,1.390e+01,1.779e+01,2.240e+01,2.788e+01,3.459e+01
(NH4)2HPO4,PH9(NO2)2,5.723e+01,6.181e+01,6.667e+01,6.949e+01,7.241e+01,7.889e+01,8.587e+01,9.417e+01,1.037e+02,1.141e+02,1.268e+02,1.416e+02
(NH4)2S2O5,H8S2N2O5,1.899e+02,2.115e+02,2.311e+02,2.390e+02,2.484e+02,2.610e+02,2.690e+02,2.718e+02,,,,
(NH4)2S2O8,H4SNO4,5.873e+01,6.793e+01,7.806e+01,8.345e+01,8.907e+01,1.010e+02,1.140e+02,1.285e+02,1.447e+02,1.632e+02,,
(NH4)2SO3,H8SN2O3,4.749e+01,5.361e+01,6.051e+01,6.420e+01,6.835e+01,7.762e+01,8.868e+01,1.024e+02,1.198e+02,1.433e+02,,
(NH4)2SO4,H8S(NO2)2,7.036e+01,7.271e+01,7.513e+01,7.637e+01,7.794e+01,8.083e+01,8.382e+01,8.727e+01,9.048e+01,9.417e+01,9.802e+01,1.020e+02
(NH4)2SeO3,H8SeN2O3,9.608e+01,1.045e+02,1.146e+02,1.208e+02,1.273e+02,1.433e+02,1.632e+02,1.890e+02,2.236e+02,,,
(NH4)2SeO4,H8Se(NO2)2,,,,1.175e+02,,,,,,,,
(NH4)3PO4,PH12N3O4,,,,1.834e+01,,,,,,,,
Ag2C2O4,AgCO2,,,,3.529e-05,,,,,,,,
Ag2CO3,Ag2CO3,,,,3.540e-03,,,,,,,,
Ag2CrO4,Cr(AgO2)2,,,,1.401e-01,,,,,,,,
Ag2SO3,Ag2SO3,,,,4.596e-04,,,,,,,,
Ag2SO4,Ag2SO4,5.600e-01,6.700e-01,7.900e-01,8.400e-01,8.900e-01,9.800e-01,1.060e+00,1.140e+00,1.210e+00,1.280e+00,1.340e+00,1.410e+00
Ag3AsO4,Ag3AsO4,,,,6.464e-05,,,,,,,,
Ag3PO4,Ag3PO4,,,,1.783e-03,,,,,,,,
AgBr,AgBr,,,,1.373e-05,,,,,,,,
AgBrO3,AgBrO3,,,,1.900e-01,,,,,,,1.340e+00,
AgCH3COO,AgH3(CO)2,,,,7.352e-01,,,,,,,,
AgCN,AgCN,,,,1.034e-07,,,,,,,,
AgCl,AgCl,,,,1.907e-04,,,,,,,,
AgClO2,AgClO2,1.700e-01,3.100e-01,4.700e-01,5.500e-01,6.400e-01,8.300e-01,1.030e+00,1.240e+00,1.460e+00,1.690e+00,1.920e+00,2.160e+00
AgClO3,AgClO3,,,,1.765e+01,,,,,,,,
AgClO4,AgClO4,4.435e+02,4.882e+02,5.329e+02,5.579e+02,5.803e+02,6.299e+02,6.634e+02,7.000e+02,7.265e+02,7.547e+02,7.772e+02,7.929e+02
AgI,AgI,,,,2.167e-07,,,,,,,,
AgIO3,AgIO3,,,,5.035e-03,,,,,,,,
AgNO2,AgNO2,1.600e-01,,,4.100e-01,,,,,,,,
AgNO3,AgNO3,1.268e+02,1.652e+02,2.106e+02,2.344e+02,2.610e+02,3.184e+02,3.808e+02,4.464e+02,5.173e+02,5.849e+02,6.519e+02,7.197e+02
AgSCN,AgCSN,,,,1.684e-05,,,,,,,,
Al(ClO4)3,Al(ClO4)3,1.217e+02,,,,,,,,,,1.809e+02,
Al(NO3)3,Al(NO3)3,5.873e+01,6.181e+01,6.639e+01,6.892e+01,7.241e+01,8.018e+01,8.975e+01,1.016e+02,1.165e+02,,,1.597e+02
Al2(SO4)3,Al2(SO4)3,3.793e+01,,,3.850e+01,3.928e+01,4.124e+01,4.430e+01,4.837e+01,5.361e+01,6.026e+01,6.863e+01,7.921e+01
AlCl3,AlCl3,4.459e+01,4.474e+01,4.499e+01,4.514e+01,4.531e+01,4.571e+01,4.620e+01,4.678e+01,4.743e+01,4.817e+01,4.903e+01,4.997e+01
AlF3,AlF3,2.500e-01,3.400e-01,4.400e-01,5.000e-01,5.600e-01,6.800e-01,8.200e-01,9.700e-01,1.120e+00,1.300e+00,1.470e+00,1.670e+00
AlPO4,AlPO4,,,,5.328e-05,,,,,,,,
As2O3,As2O3,1.200e+00,1.500e+00,1.830e+00,2.050e+00,2.320e+00,2.940e+00,3.550e+00,4.290e+00,5.140e+00,6.120e+00,7.200e+00,8.350e+00
Ba(BrO3)2,Ba(BrO3)2,2.900e-01,4.400e-01,6.600e-01,7.900e-01,9.400e-01,1.320e+00,1.770e+00,2.320e+00,2.990e+00,3.750e+00,4.600e+00,5.540e+00
Ba(C2H3O2)2,BaH6(CO)4,5.873e+01,,,7.921e+01,,,,,,,,
Ba(ClO2)2,Ba(ClO2)2,4.388e+01,,,4.556e+01,,,,,,,,8.083e+01
Ba(ClO3)2,Ba(ClO3)2,2.034e+01,2.695e+01,3.099e+01,3.793e+01,4.170e+01,4.961e+01,5.795e+01,6.681e+01,7.556e+01,8.484e+01,9.493e+01,1.048e+02
Ba(ClO4)2,Ba(ClO4)2,2.058e+02,2.443e+02,2.891e+02,3.124e+02,3.357e+02,3.815e+02,4.241e+02,4.621e+02,4.938e+02,5.204e+02,5.423e+02,5.622e+02
Ba(IO3)2,Ba(IO3)2,2.000e-02,3.000e-02,3.000e-02,4.000e-02,5.000e-02,6.000e-02,7.000e-02,9.000e-02,1.100e-01,1.300e-01,1.600e-01,1.800e-01
Ba(IO3)2(H2O),BaH2I2O7,,,,3.775e-02,,,,,,,,
Ba(NO2)2,Ba(NO2)2,4.514e+01,5.773e+01,7.182e+01,7.953e+01,8.797e+01,1.066e+02,1.283e+02,1.532e+02,1.825e+02,2.175e+02,2.584e+02,3.098e+02
Ba(NO3)2,Ba(NO3)2,4.930e+00,6.720e+00,8.930e+00,1.025e+01,1.136e+01,1.416e+01,1.723e+01,2.048e+01,2.392e+01,2.739e+01,3.072e+01,3.423e+01
Ba(OH)2,Ba(HO)2,1.700e+00,,,4.910e+00,9.170e+00,2.346e+01,4.925e+01,1.083e+02,2.846e+02,inf,,
Ba(OH)2(H2O)8,Ba(H9O5)2,,,,1.260e+00,,,,,,,,
Ba(SCN)2,BaC2(SN)2,,,,1.674e+02,,,,,,,,
BaBr2,BaBr2,9.084e+01,9.417e+01,9.802e+01,1.000e+02,1.016e+02,1.058e+02,1.105e+02,1.150e+02,1.198e+02,1.247e+02,1.304e+02,1.358e+02
BaCO3,BaCO3,,,,1.705e-02,,,,,,,,
BaCl2,BaCl2,3.038e+01,3.312e+01,3.574e+01,3.704e+01,3.831e+01,4.085e+01,4.341e+01,4.605e+01,4.883e+01,5.184e+01,5.513e+01,5.886e+01
BaCrO4,BaCrO4,,,,7.805e-03,,,,,,,,
BaF2,BaF2,,1.600e-01,,1.600e-01,,,,,,,,
BaI2,BaI2,1.667e+02,1.833e+02,2.058e+02,2.205e+02,2.236e+02,2.279e+02,2.344e+02,2.413e+02,2.484e+02,2.571e+02,2.663e+02,2.759e+02
BaMoO4,BaMoO4,,,,6.149e-02,,,,,,,,
BaS,BaS,2.870e+00,5.020e+00,7.490e+00,8.940e+00,1.060e+01,1.451e+01,1.930e+01,2.508e+01,3.191e+01,3.996e+01,4.934e+01,6.028e+01
BaSO3,BaSO3,,,,0.000e+00,,,,,,,,
BaSO4,BaSO4,,,,7.002e-03,,,,,,,,
BaSeO4,BaSeO4,,,,5.720e-02,,,,,,,,
Be(ClO4)2,Be(ClO4)2,,,,1.469e+02,,,,,,,,
Be(OH)2,Be(HO)2,,,,2.397e-07,,,,,,,,
BeCl2,BeCl2,6.807e+01,,,7.153e+01,,,,,,,,
BeSO4,BeSO4,3.641e+01,3.808e+01,4.008e+01,4.128e+01,4.265e+01,4.601e+01,5.013e+01,5.504e+01,6.072e+01,6.725e+01,7.458e+01,8.275e+01
BiAsO4,BiAsO4,,,,7.002e-02,,,,,,,,
BiI3,BiI3,,,,7.666e-04,,,,,,,,
Ca(ClO3)2,Ca(ClO3)2,1.717e+02,1.793e+02,1.899e+02,1.967e+02,2.049e+02,2.226e+02,2.448e+02,2.731e+02,3.082e+02,3.425e+02,3.484e+02,3.546e+02
Ca(ClO4)2,Ca(ClO4)2,,,,1.882e+02,,,,,,,,
Ca(IO3)2,Ca(IO3)2,8.000e-02,1.600e-01,2.400e-01,3.100e-01,3.900e-01,5.200e-01,5.900e-01,6.600e-01,8.200e-01,6.700e-01,6.700e-01,
Ca(IO3)2(H2O)6,CaH12(IO6)2,,,,2.799e-01,,,,,,,,
Ca(NO2)2,Ca(NO2)2,6.287e+01,6.529e+01,8.018e+01,9.455e+01,,,,,,,,
Ca(NO3)2,Ca(NO3)2,1.004e+02,1.132e+02,1.309e+02,1.439e+02,1.558e+02,1.890e+02,3.504e+02,3.566e+02,3.587e+02,3.608e+02,3.630e+02,3.651e+02
Ca(OH)2,Ca(HO)2,,,,7.992e-02,,,,,,,,
Ca3(PO4)2,Ca3(PO4)2,,,,3.533e-06,,,,,,,,
CaBr2,CaBr2,1.222e+02,1.273e+02,1.439e+02,1.564e+02,1.703e+02,2.125e+02,2.448e+02,2.704e+02,,,,
CaC2O4(H2O),CaH2C2O5,,,,1.219e-02,,,,,,,,
CaCO3,CaCO3,,,,9.444e-03,,,,,,,,
CaCl2,CaCl2,5.798e+01,6.445e+01,7.280e+01,8.126e+01,9.654e+01,1.121e+02,1.275e+02,1.311e+02,1.350e+02,1.393e+02,1.441e+02,1.496e+02
CaF2,CaF2,0.000e+00,,,0.000e+00,,,,,,,,
CaI2,CaI2,1.825e+02,1.941e+02,2.086e+02,2.155e+02,2.226e+02,2.425e+02,2.623e+02,2.846e+02,3.167e+02,3.546e+02,3.902e+02,4.263e+02
CaMoO4,CaMoO4,,,,3.080e-02,,,,,,,,
CaSO3,CaSO3,,,1.000e-02,1.000e-02,0.000e+00,0.000e+00,0.000e+00,0.000e+00,0.000e+00,0.000e+00,0.000e+00,0.000e+00
CaSO4,CaSO4,1.700e-01,1.900e-01,2.000e-01,2.100e-01,2.100e-01,2.100e-01,2.100e-01,2.000e-01,1.900e-01,1.800e-01,1.700e-01,1.600e-01
CaSO4(H2O)2,CaH4SO6,,,,3.422e-01,,,,,,,,
Cd(ClO4)2,Cd(ClO4)2,,,,1.421e+02,,,,,,,,2.021e+02
Cd(IO3)2,Cd(IO3)2,,,,9.000e-02,,,,,,,,
Cd(NO3)2,Cd(NO3)2,1.242e+02,1.331e+02,1.475e+02,1.564e+02,1.688e+02,1.985e+02,2.401e+02,6.194e+02,6.407e+02,6.576e+02,6.752e+02,6.936e+02
Cd(OH)2,Cd(HO)2,,,,1.781e-04,,,,,,,,
Cd3(AsO4)2,Cd3(AsO4)2,,,,7.091e-06,,,,,,,,
Cd3(PO4)2,Cd3(PO4)2,,,,6.250e-06,,,,,,,,
CdBr2,CdBr2,5.625e+01,7.544e+01,9.960e+01,1.146e+02,1.294e+02,1.519e+02,1.519e+02,1.532e+02,1.544e+02,1.558e+02,1.584e+02,1.604e+02
CdC2O4,Cd(CO2)2,,,,1.000e-02,,,,,,,,
CdC2O4(H2O)3,CdH6C2O7,,,,3.882e-02,,,,,,,,
CdCO3,CdCO3,,,,1.086e-03,,,,,,,,
CdCl2,CdCl2,8.939e+01,1.004e+02,1.137e+02,1.203e+02,1.288e+02,1.342e+02,1.353e+02,1.370e+02,1.387e+02,1.410e+02,1.438e+02,1.469e+02
CdF2,CdF2,,6.180e+00,4.880e+00,4.360e+00,3.910e+00,,,,,,,
CdI2,CdI2,7.889e+01,8.149e+01,8.450e+01,8.622e+01,8.797e+01,9.194e+01,9.608e+01,1.008e+02,1.062e+02,1.114e+02,1.179e+02,1.242e+02
CdSO4,CdSO4,7.575e+01,7.575e+01,7.606e+01,7.668e+01,7.730e+01,7.889e+01,7.699e+01,7.391e+01,7.065e+01,6.722e+01,6.260e+01,5.798e+01
CdSeO4,CdSeO4,7.253e+01,6.832e+01,6.399e+01,6.176e+01,5.946e+01,5.468e+01,4.959e+01,4.420e+01,3.858e+01,3.278e+01,2.697e+01,2.120e+01
Ce(NO3)3,Ce(NO3)3,1.380e+02,1.488e+02,1.624e+02,1.706e+02,1.802e+02,2.030e+02,2.185e+02,2.460e+02,2.984e+02,3.808e+02,4.236e+02,4.917e+02
Co(ClO4)2,Co(ClO4)2,1.000e+02,,,1.128e+02,,,,,,,,
Co(IO3)2(H2O)2,CoH4(IO4)2,,,,6.432e+00,,,,,,,,
Co(NO2)2,Co(NO2)2,8.000e-02,,,4.900e-01,,,,,,,,
Co(NO3)2,Co(NO3)2,8.349e+01,8.868e+01,9.763e+01,1.032e+02,1.101e+02,1.273e+02,1.506e+02,1.674e+02,1.849e+02,2.096e+02,,
Co(OH)2,Co(HO)2,,,,1.059e-04,,,,,,,,
Co(SCN)2,CoC2(SN)2,,,,1.028e+02,,,,,,,,
Co3(AsO4)2,Co3(AsO4)2,,,,4.145e-05,,,,,,,,
Co3(PO4)2,Co3(PO4)2,,,,1.660e-06,,,,,,,,
CoCl2,CoCl2,4.347e+01,4.837e+01,5.354e+01,5.623e+01,5.898e+01,6.466e+01,7.059e+01,7.687e+01,8.349e+01,9.051e+01,9.806e+01,1.062e+02
CoF2,CoF2,,,,1.420e+00,,,,,,,,
CoI2,CoI2,1.381e+02,1.616e+02,1.886e+02,2.029e+02,2.176e+02,2.469e+02,2.761e+02,3.047e+02,3.327e+02,3.604e+02,3.883e+02,4.181e+02
CoSO4,CoSO4,2.484e+01,2.987e+01,3.532e+01,3.831e+01,4.124e+01,4.771e+01,5.244e+01,5.601e+01,5.504e+01,4.970e+01,4.409e+01,3.850e+01
CrO3,CrO3,1.646e+02,1.652e+02,1.674e+02,1.688e+02,1.703e+02,1.740e+02,1.786e+02,1.833e+02,1.899e+02,1.959e+02,2.039e+02,2.115e+02
Cs2SO4,Cs2SO4,1.674e+02,1.732e+02,1.786e+02,1.817e+02,1.841e+02,1.899e+02,1.950e+02,2.003e+02,2.058e+02,2.106e+02,2.155e+02,2.205e+02
CsBr,CsBr,,,,1.232e+02,,,,,,,,
CsBrO3,CsBrO3,1.170e+00,1.970e+00,3.100e+00,3.830e+00,4.670e+00,6.750e+00,9.410e+00,1.276e+01,1.689e+01,2.189e+01,2.793e+01,3.510e+01
CsCl,CsCl,1.620e+02,1.738e+02,1.854e+02,1.910e+02,1.967e+02,2.077e+02,2.185e+02,2.291e+02,2.394e+02,2.497e+02,2.598e+02,2.698e+02
CsClO3,CsClO3,2.460e+00,4.030e+00,6.320e+00,7.780e+00,9.520e+00,1.383e+01,1.952e+01,2.681e+01,3.596e+01,4.728e+01,6.100e+01,7.674e+01
CsClO4,CsClO4,8.000e-01,1.020e+00,1.530e+00,2.000e+00,2.640e+00,4.470e+00,7.010e+00,1.024e+01,1.417e+01,1.876e+01,2.405e+01,2.999e+01
CsI,CsI,4.472e+01,5.924e+01,7.606e+01,8.484e+01,9.455e+01,1.141e+02,1.342e+02,1.544e+02,1.747e+02,1.933e+02,2.096e+02,2.247e+02
CsIO3,CsIO3,1.090e+00,1.610e+00,2.260e+00,2.660e+00,3.110e+00,4.120e+00,5.330e+00,6.710e+00,8.340e+00,1.013e+01,1.210e+01,1.422e+01
CsIO4,CsIO4,,,,7.355e-02,,,,,,,,
CsNO3,CsNO3,9.240e+00,1.494e+01,2.285e+01,2.788e+01,3.351e+01,4.706e+01,6.393e+01,8.416e+01,1.079e+02,1.342e+02,1.638e+02,1.959e+02
CsOH,CsHO,,,,,3.000e+02,,,,,,,
Cu(ClO4)2,Cu(ClO4)2,1.188e+02,,,,1.457e+02,,,,,,,
Cu(IO3)2(H2O),CuH2I2O7,,,,1.117e-01,,,,,,,,
Cu(NO3)2,Cu(NO3)2,8.248e+01,9.920e+01,1.288e+02,1.451e+02,1.571e+02,1.632e+02,1.710e+02,1.817e+02,1.933e+02,2.077e+02,2.247e+02,2.448e+02
Cu3(AsO4)2,Cu3(AsO4)2,,,,1.754e-06,,,,,,,,
Cu3(PO4)2,Cu3(PO4)2,,,,6.353e-07,,,,,,,,
CuBr,CuBr,,,,1.136e-03,,,,,,,,
CuBr2,CuBr2,,,,1.262e+02,,,,,,,,
CuC2O4,Cu(CO2)2,,,,7.279e-03,,,,,,,,
CuCN,CuCN,,,,1.668e-09,,,,,,,,
CuCl,CuCl,,,,4.106e-03,,,,,,,,
CuCl2,CuCl2,6.892e+01,7.153e+01,7.422e+01,7.575e+01,7.762e+01,8.116e+01,8.519e+01,8.939e+01,9.417e+01,9.960e+01,1.053e+02,1.114e+02
CuF2,CuF2,,,,8.000e-02,,,,,,,,
CuI,CuI,,,,2.146e-05,,,,,,,,
CuSCN,CuCSN,,,,5.117e-06,,,,,,,,
CuSO4,CuSO4,1.416e+01,1.682e+01,2.005e+01,2.195e+01,2.392e+01,2.853e+01,3.405e+01,4.045e+01,4.793e+01,5.699e+01,6.750e+01,7.699e+01
CuSeO4,CuSeO4,1.186e+01,,,1.905e+01,,,,,,,,
Dy(NO3)3,Dy(NO3)3,1.427e+02,1.499e+02,1.597e+02,1.656e+02,1.724e+02,1.893e+02,2.129e+02,2.519e+02,,,,
Er(NO3)3,Er(NO3)3,1.603e+02,1.714e+02,1.844e+02,1.920e+02,2.002e+02,2.195e+02,2.443e+02,2.794e+02,3.494e+02,,,
Eu(NO3)3,Eu(NO3)3,1.232e+02,1.309e+02,1.410e+02,1.463e+02,1.525e+02,1.667e+02,1.825e+02,,,,,
Eu(OH)3,Eu(HO)3,,,,2.771e-06,,,,,,,,
Fe(ClO4)2,Fe(ClO4)2,1.732e+02,,,2.102e+02,,,,,,,,
Fe(NO3)2,Fe(NO3)2,7.077e+01,,,8.751e+01,,,,,,,,
Fe(NO3)3,Fe(NO3)3,6.708e+01,,,8.716e+01,,,,,,,,
Fe(OH)2,Fe(HO)2,,,,2.067e-05,,,,,,,,
Fe(OH)3,Fe(HO)3,,,,1.077e-09,,,,,,,,
FeBr2,FeBr2,,,,1.203e+02,,,,,,,,1.841e+02
FeCO3,FeCO3,,,,2.300e-03,,,,,,,,
FeCl2,FeCl2,4.970e+01,,,6.502e+01,,,,,,,,9.493e+01
FeCl3,FeCl3,7.452e+01,8.149e+01,9.194e+01,9.120e+01,1.066e+02,2.968e+02,3.292e+02,5.494e+02,5.369e+02,5.369e+02,5.410e+02,5.536e+02
FeF2,FeF2,,,,7.871e-02,,,,,,,,
FeF3,FeF3,,,,5.920e+00,,,,,,,,
FePO4(H2O)2,FeP(H2O3)2,,,,1.454e-03,,,,,,,,
FeSO4,FeSO4,1.561e+01,2.048e+01,2.626e+01,2.953e+01,3.298e+01,4.045e+01,4.881e+01,5.504e+01,5.060e+01,4.368e+01,3.717e+01,3.158e+01
Ga(OH)3,Ga(HO)3,,,,8.701e-09,,,,,,,,
Gd(NO3)3,Gd(NO3)3,1.288e+02,1.364e+02,1.451e+02,1.506e+02,1.564e+02,1.695e+02,1.874e+02,2.115e+02,2.509e+02,,,
H3BO3,B(HO)3,2.680e+00,3.700e+00,5.010e+00,5.800e+00,6.690e+00,8.810e+00,1.148e+01,1.481e+01,1.891e+01,2.392e+01,3.004e+01,3.755e+01
HIO3,HIO3,2.766e+02,2.861e+02,2.997e+02,3.078e+02,3.172e+02,3.386e+02,3.642e+02,3.946e+02,4.299e+02,4.708e+02,5.180e+02,5.730e+02
Hg(CN)2,Hg(CN)2,7.030e+00,8.500e+00,1.029e+01,1.136e+01,1.249e+01,1.507e+01,1.834e+01,2.225e+01,2.690e+01,3.263e+01,3.947e+01,4.771e+01
Hg(SCN)2,HgC2(SN)2,,,,7.000e-02,,,,,,,,
Hg2(ClO4)2,HgClO4,2.817e+02,,,3.951e+02,,,,,,,,5.803e+02
Hg2(SCN)2,HgCSN,,,,4.627e-09,,,,,,,,
Hg2Br2,HgBr,,,,2.244e-10,,,,,,,,
Hg2C2O4,HgCO2,,,,8.619e-04,,,,,,,,
Hg2CO3,Hg2CO3,,,,1.786e-03,,,,,,,,
Hg2Cl2,HgCl,,,,0.000e+00,,,,,,,,
Hg2F2,HgF,,,,3.866e-02,,,,,,,,
Hg2I2,HgI,,,,2.362e-13,,,,,,,,
Hg2SO4,Hg2SO4,4.000e-02,4.000e-02,5.000e-02,5.000e-02,5.000e-02,6.000e-02,7.000e-02,7.000e-02,8.000e-02,8.000e-02,9.000e-02,9.000e-02
HgBr2,HgBr2,2.600e-01,3.700e-01,5.200e-01,6.100e-01,7.300e-01,9.700e-01,1.280e+00,1.660e+00,2.120e+00,2.680e+00,3.340e+00,4.110e+00
HgCl2,HgCl2,4.430e+00,5.320e+00,6.580e+00,7.310e+00,8.250e+00,1.053e+01,1.366e+01,1.790e+01,2.370e+01,3.168e+01,4.265e+01,5.778e+01
HgI2,HgI2,,,0.000e+00,1.000e-02,1.000e-02,1.000e-02,2.000e-02,,,,,
Ho(NO3)3,Ho(NO3)3,,,,1.762e+02,,,,,,,,
K2CO3,K2CO3,1.053e+02,1.070e+02,1.096e+02,1.114e+02,1.132e+02,1.174e+02,1.217e+02,1.273e+02,1.336e+02,1.404e+02,1.475e+02,1.564e+02
K2Cr2O7,K2Cr2O7,4.490e+00,7.670e+00,1.223e+01,1.507e+01,1.834e+01,2.626e+01,3.569e+01,4.641e+01,5.848e+01,7.094e+01,8.349e+01,9.569e+01
K2CrO4,K2CrO4,5.898e+01,6.155e+01,6.367e+01,6.502e+01,6.611e+01,6.807e+01,7.036e+01,7.212e+01,7.422e+01,7.606e+01,7.794e+01,7.953e+01
K2HAsO4,K2AsHO4,9.417e+01,,,1.747e+02,,,,,,,,3.951e+02
K2HPO4,K2PHO4,1.326e+02,1.445e+02,1.597e+02,1.681e+02,1.786e+02,2.096e+02,,2.663e+02,,,,
K2MoO4,K2MoO4,,,,1.833e+02,,,,,,,1.985e+02,
K2PtCl6,K2PtCl6,,,,5.988e-01,,,,,,,,
K2S2O3,K2S2O3,9.608e+01,,,1.652e+02,,,,,,,3.115e+02,
K2S2O5,K2S2O5,2.837e+01,3.643e+01,4.514e+01,4.948e+01,5.432e+01,6.393e+01,7.422e+01,8.519e+01,9.646e+01,1.083e+02,1.203e+02,
K2SO3,K2SO3,1.053e+02,1.057e+02,1.061e+02,1.064e+02,1.067e+02,1.073e+02,1.080e+02,1.088e+02,1.097e+02,1.107e+02,1.118e+02,1.130e+02
K2SO4,K2SO4,7.650e+00,9.240e+00,1.105e+01,1.198e+01,1.287e+01,1.481e+01,1.655e+01,1.834e+01,2.005e+01,2.151e+01,2.285e+01,2.392e+01
K2SeO3,K2SeO3,2.165e+02,,,2.175e+02,,,,,,,,2.175e+02
K2SeO4,K2SeO4,1.114e+02,1.125e+02,1.135e+02,1.141e+02,1.147e+02,1.160e+02,1.173e+02,1.188e+02,1.203e+02,1.219e+02,1.235e+02,1.252e+02
K3AsO4,K3AsO4,1.062e+02,,,1.252e+02,,,,,,,,2.704e+02
K3Fe(CN)6,K3Fe(CN)6,3.141e+01,3.812e+01,4.514e+01,4.881e+01,5.221e+01,5.924e+01,6.556e+01,7.153e+01,7.699e+01,8.182e+01,8.553e+01,8.868e+01
K3PO4,K3PO4,7.953e+01,,,1.058e+02,,,,,,,,
K4Fe(CN)6,K4Fe(CN)6,1.429e+01,2.092e+01,2.821e+01,3.141e+01,3.441e+01,4.124e+01,4.815e+01,5.504e+01,6.181e+01,6.835e+01,7.065e+01,7.575e+01
KBF4,KBF4,2.800e-01,3.400e-01,4.500e-01,5.500e-01,7.600e-01,1.400e+00,2.130e+00,2.900e+00,3.710e+00,4.540e+00,5.400e+00,6.270e+00
KBr,KBr,5.385e+01,5.949e+01,6.502e+01,6.779e+01,7.065e+01,7.606e+01,8.116e+01,8.587e+01,9.084e+01,9.531e+01,9.920e+01,1.032e+02
KBrO3,KBrO3,3.060e+00,4.690e+00,6.860e+00,8.170e+00,9.640e+00,1.308e+01,1.725e+01,2.216e+01,2.786e+01,3.435e+01,4.168e+01,4.988e+01
KC2H3O2,KH3(CO)2,2.165e+02,2.366e+02,2.583e+02,2.693e+02,2.802e+02,3.013e+02,3.214e+02,3.407e+02,3.591e+02,3.771e+02,3.951e+02,4.141e+02
KCl,KCl,2.778e+01,3.091e+01,3.403e+01,3.554e+01,3.706e+01,4.004e+01,4.294e+01,4.577e+01,4.850e+01,5.119e+01,5.382e+01,5.637e+01
KClO3,KClO3,3.120e+00,4.900e+00,7.230e+00,8.610e+00,1.014e+01,1.371e+01,1.801e+01,2.312e+01,2.928e+01,3.676e+01,4.605e+01,5.785e+01
KClO4,KClO4,7.000e-01,1.110e+00,1.700e+00,2.080e+00,2.530e+00,3.670e+00,5.200e+00,7.230e+00,9.880e+00,1.326e+01,1.756e+01,2.296e+01
KF,KF,4.472e+01,6.611e+01,8.975e+01,1.017e+02,1.137e+02,,,,,1.500e+02,,
KH2PO4,KP(HO2)2,1.330e+01,1.752e+01,2.232e+01,2.495e+01,2.783e+01,3.383e+01,4.075e+01,4.872e+01,5.810e+01,6.938e+01,8.318e+01,1.005e+02
KHCO3,KHCO3,2.288e+01,2.776e+01,3.319e+01,3.624e+01,3.914e+01,4.560e+01,5.258e+01,6.003e+01,6.793e+01,,,
KHSO4,KHSO4,3.717e+01,4.225e+01,4.771e+01,5.060e+01,5.385e+01,6.077e+01,6.807e+01,7.668e+01,8.587e+01,9.616e+01,1.076e+02,1.203e+02
KI,KI,1.273e+02,1.358e+02,1.439e+02,1.481e+02,1.525e+02,1.604e+02,1.688e+02,1.762e+02,1.841e+02,1.916e+02,1.994e+02,2.068e+02
KIO3,KIO3,4.740e+00,6.340e+00,8.190e+00,9.220e+00,1.030e+01,1.247e+01,1.523e+01,1.805e+01,2.108e+01,2.435e+01,2.784e+01,3.163e+01
KIO4,KIO4,1.600e-01,2.200e-01,3.700e-01,5.100e-01,7.000e-01,1.260e+00,2.000e+00,2.910e+00,3.970e+00,5.140e+00,6.410e+00,7.720e+00
KMnO4,KMnO4,2.820e+00,4.300e+00,6.340e+00,7.600e+00,9.030e+00,1.250e+01,1.685e+01,2.219e+01,,,,
KNO2,KNO2,2.802e+02,2.937e+02,3.049e+02,3.115e+02,3.167e+02,3.292e+02,3.425e+02,3.546e+02,3.651e+02,3.785e+02,3.902e+02,4.025e+02
KNO3,KNO3,1.364e+01,2.136e+01,3.193e+01,3.831e+01,4.556e+01,6.287e+01,8.416e+01,1.092e+02,1.381e+02,1.703e+02,2.058e+02,2.425e+02
KOH,KHO,9.493e+01,1.032e+02,1.137e+02,1.208e+02,1.278e+02,1.375e+02,1.416e+02,1.469e+02,1.538e+02,1.618e+02,1.710e+02,1.825e+02
KSCN,KCSN,1.762e+02,1.976e+02,2.236e+02,2.378e+02,2.521e+02,2.861e+02,3.255e+02,3.739e+02,4.291e+02,4.988e+02,5.803e+02,6.874e+02
La(IO3)3,La(IO3)3,,,,4.818e-02,,,,,,,,
La(NO3)3,La(NO3)3,1.222e+02,1.320e+02,1.433e+02,1.500e+02,1.571e+02,1.747e+02,1.967e+02,2.322e+02,2.861e+02,,,
LaCl3,LaCl3,9.608e+01,9.417e+01,9.455e+01,9.569e+01,9.724e+01,1.020e+02,1.088e+02,1.174e+02,1.288e+02,1.433e+02,1.611e+02,
Li2C2O4,LiCO2,,,,6.240e+00,,,,,,,,
Li2CO3,Li2CO3,1.560e+00,1.450e+00,1.350e+00,1.300e+00,1.260e+00,1.160e+00,1.080e+00,1.000e+00,9.300e-01,8.600e-01,7.900e-01,7.300e-01
Li2HPO3,Li2PHO3,9.970e+00,9.170e+00,8.420e+00,8.070e+00,7.740e+00,7.110e+00,6.560e+00,6.060e+00,5.600e+00,5.160e+00,4.740e+00,4.340e+00
Li2SO4,Li2SO4,3.569e+01,3.495e+01,3.441e+01,3.423e+01,3.387e+01,3.333e+01,3.298e+01,3.245e+01,3.210e+01,3.158e+01,3.123e+01,3.089e+01
Li3PO4,Li3PO4,,,,3.000e-02,,,,,,,,
LiBr,LiBr,1.404e+02,1.506e+02,1.681e+02,1.809e+02,1.933e+02,2.106e+02,2.155e+02,2.226e+02,2.311e+02,2.413e+02,2.534e+02,2.676e+02
LiBrO3,LiBrO3,1.566e+02,1.675e+02,1.812e+02,1.893e+02,1.986e+02,2.215e+02,2.531e+02,2.737e+02,2.911e+02,3.109e+02,3.335e+02,3.612e+02
LiC2H3O2,LiH3(CO)2,3.116e+01,3.604e+01,4.168e+01,4.497e+01,4.863e+01,5.743e+01,6.849e+01,8.232e+01,9.972e+01,1.218e+02,1.502e+02,1.878e+02
LiCl,LiCl,6.793e+01,7.379e+01,8.278e+01,8.454e+01,8.605e+01,8.975e+01,9.406e+01,9.912e+01,1.052e+02,1.127e+02,1.221e+02,1.290e+02
LiClO3,LiClO3,2.731e+02,3.098e+02,4.208e+02,4.587e+02,5.024e+02,6.092e+02,6.752e+02,7.475e+02,8.615e+02,1.049e+03,1.415e+03,2.226e+03
LiClO4,LiClO4,4.306e+01,4.837e+01,5.504e+01,5.873e+01,6.287e+01,7.212e+01,8.349e+01,9.685e+01,1.137e+02,1.336e+02,1.584e+02,2.497e+02
LiF,LiF,1.200e-01,1.300e-01,1.300e-01,1.300e-01,,,,,,,,
LiH2PO4,LiP(HO2)2,1.262e+02,,,,,,,,,,,
LiI,LiI,1.463e+02,1.532e+02,1.611e+02,1.652e+02,1.703e+02,1.801e+02,1.924e+02,2.058e+02,2.205e+02,4.348e+02,4.464e+02,4.747e+02
LiIO3,LiIO3,,,,7.794e+01,,,,,,,,
LiNO2,LiNO2,6.949e+01,8.182e+01,9.608e+01,1.041e+02,1.128e+02,1.273e+02,1.500e+02,1.703e+02,1.941e+02,2.125e+02,,
LiNO3,LiNO3,5.337e+01,6.026e+01,7.452e+01,1.020e+02,1.375e+02,1.506e+02,1.646e+02,1.778e+02,1.916e+02,2.049e+02,2.175e+02,2.300e+02
LiOH,LiHO,1.211e+01,1.211e+01,1.236e+01,1.249e+01,1.274e+01,1.325e+01,1.390e+01,1.455e+01,1.547e+01,1.655e+01,1.779e+01,1.919e+01
LiSCN,LiCSN,,,,1.198e+02,,,,,,,,
Lu(NO3)3,Lu(NO3)3,,,,2.460e+02,,,,,,,,
Mg(BrO3)2,Mg(BrO3)2,7.544e+01,8.248e+01,9.231e+01,9.763e+01,1.041e+02,1.188e+02,1.375e+02,1.604e+02,1.882e+02,2.226e+02,2.436e+02,2.534e+02
Mg(C2H3O2)2,MgH6(CO)4,5.669e+01,6.013e+01,6.372e+01,6.559e+01,,,,,,,,