formula,reduced_formula,solubility_0C,solubility_10C,solubility_20C,solubility_25C,solubility_30C,solubility_40C,solubility_50C,solubility_60C,solubility_70C,solubility_80C,solubility_90C,solubility_100C
Sr(ClO4)2,Sr(ClO4)2,233.78,,,305.68,,363.82,,,,,,
SrF2,SrF2,0.01,,,0.02,,,,,,,,
SrI2,SrI2,166.67,168.82,173.97,177.01,181.69,192.4,205.81,222.58,242.47,266.3,295.26,380.77
Sr(IO3)2,Sr(IO3)2,0.1,0.13,0.15,0.17,0.18,0.21,0.23,0.26,0.28,0.31,0.33,0.35
Sr(MnO4)2,SrMn2O8,2.56,,,,,,,,,,,
Sr(NO2)2,Sr(NO2)2,,,,,72.12,79.53,,,,,,141.55
Sr(NO3)2,Sr(NO3)2,39.28,52.91,69.49,80.18,88.68,90.11,91.94,93.8,95.69,98.02,100.4,102.84
Sr(OH)2,Sr(HO)2,0.91,,,2.25,,,,,,,,
SrSO3,SrSO3,,,,0.0,,,,,,,,
SrSO4,SrSO4,,,,0.01,,,,,,,,
SrS2O3,SrS2O3,9.65,15.21,21.51,25.0,28.53,36.61,,,,,,
Tb(NO3)3,Tb(NO3)3,,,153.81,156.54,,,,,,,,
Tl2SO4,Tl2SO4,2.72,3.69,4.83,5.47,6.16,7.63,9.24,10.98,12.78,14.64,16.52,18.39
Tm(NO3)3,Tm(NO3)3,,,,211.53,,,,,,,,
UO2(NO3)2,U(NO4)2,98.1,107.56,119.39,126.5,135.57,160.35,203.67,,,,,
Y(NO3)3,Y(NO3)3,125.07,132.18,142.42,149.13,157.14,172.48,184.9,211.53,263.64,,,
Yb(NO3)3,Yb(NO3)3,,,,238.98,,,,,,,,
ZnBr2,ZnBr2,383.09,402.51,449.45,488.24,528.93,594.44,604.23,619.42,629.93,646.27,657.58,675.19
ZnC2O4,Zn(CO2)2,,0.0,0.0,0.0,,,,,,,,
ZnCl2,ZnCl2,,327.35,376.19,407.61,437.63,449.45,468.18,488.24,513.5,541.03,575.68,614.29
Zn(ClO4)2,Zn(ClO4)2,79.5,,,86.12,,,94.93,,,,,
ZnF2,ZnF2,,,,1.55,,,,,,,,
ZnI2,ZnI2,429.1,431.91,434.76,437.63,440.54,446.45,455.56,464.97,474.71,488.24,498.8,513.5
Zn(IO3)2,Zn(IO3)2,,,0.58,0.64,0.69,0.78,0.83,,,,,
Zn(NO3)2,Zn(NO3)2,91.57,103.25,119.3,120.26,140.96,378.47,402.51,700.0,890.1,,,
ZnSO3,ZnSO3,,,0.18,0.18,0.18,0.18,0.18,,,,,
ZnSO4,ZnSO4,41.04,47.06,53.85,57.73,61.81,70.36,75.44,72.71,69.49,66.39,63.4,60.26
ZnSeO4,ZnSeO4,49.39,53.8,59.69,63.37,67.62,,,,,,,